HEADER
"PSFversion" "1.00"
"simulator" "spectre"
"version" "18.1.0.077"
"date" "2:06:32 PM, Thur May 25, 2023"
"design" "// Generated for: spectre"
"analysis type" "info"
"analysis name" "outputParameter"
"analysis description" "Circuit Information"
"xVecSorted" "unknown"
"tolerance.relative" 0.00100000
"ReferenceTemperature.Value" 27.0000
"ReferenceTemperature.Units" "C"
TYPE
"bsim4~instparams" STRUCT(
"tempeff" FLOAT DOUBLE PROP(
"units" "C"
"description" "Effective temperature for a single device"
)
"meff" FLOAT DOUBLE PROP(
"description" "Effective multiplicity factor (m-factor)"
)
"weff" FLOAT DOUBLE PROP(
"units" "m"
"description" "Effective channel width (alias=lx62)"
)
"leff" FLOAT DOUBLE PROP(
"units" "m"
"description" "Effective channel length (alias=lx63)"
)
"weffcv" FLOAT DOUBLE PROP(
"units" "m"
"description" "Effective channel width for CV (alias=lx64)"
)
"leffcv" FLOAT DOUBLE PROP(
"units" "m"
"description" "Effective channel length for CV (alias=lx65)"
)
"vfbsd" FLOAT DOUBLE PROP(
"units" "V"
"description" "Flat band Voltage between the gate and Drain/source diffusions (alias=lx75)"
)
"rgbi" FLOAT DOUBLE PROP(
"units" "Ohm"
"description" "Gate bias-independent resistance"
)
"adeff" FLOAT DOUBLE PROP(
"units" "m^2"
"description" "Effective drain area"
)
"aseff" FLOAT DOUBLE PROP(
"units" "m^2"
"description" "Effective source area"
)
"pdeff" FLOAT DOUBLE PROP(
"units" "m"
"description" "Effective drain perimeter"
)
"pseff" FLOAT DOUBLE PROP(
"units" "m"
"description" "Effective source perimeter"
)
) PROP(
"key" "inst"
)
"vsource~instparams" STRUCT(
"tempeff" FLOAT DOUBLE PROP(
"units" "C"
"description" "Effective temperature for a single device"
)
) PROP(
"key" "inst"
)
VALUE
"M0" "bsim4~instparams" (
2.700000000000000e+01
1.000000000000000e+00
2.536326931217760e-06
1.921510586958067e-07
2.536326931217760e-06
1.756195986958067e-07
3.139996432976552e-03
0.000000000000000e+00
4.403572129631081e-13
4.403572129631081e-13
2.846326931217761e-06
2.846326931217761e-06
) PROP(
"model" "pch.9"
)
"V0" "vsource~instparams" (
2.700000000000000e+01
) PROP(
"model" "vsource"
)
"V1" "vsource~instparams" (
2.700000000000000e+01
) PROP(
"model" "vsource"
)
"V2" "vsource~instparams" (
2.700000000000000e+01
) PROP(
"model" "vsource"
)
END
